<VTKFile type="PolyData" version="1.0" byte_order="LittleEndian" header_type="UInt64">
  <PolyData>
    <Piece NumberOfPoints="100" NumberOfVerts="100">
      <Points>
        <DataArray type="Float64" Name="Points" NumberOfComponents="3" format="ascii">
0.191120 0.542772 0.939108
0.933523 0.710147 0.682257
0.228446 0.513097 0.438905
0.700754 0.436179 0.434735
0.751419 0.522504 0.196855
0.666369 0.261523 0.050127
0.573708 0.768383 0.022587
0.750211 0.313137 0.190846
0.507718 0.273360 0.264172
0.670213 0.932599 0.212948
0.586036 0.006718 0.574775
0.336361 0.205412 0.440432
0.553825 0.740555 0.064820
0.764503 0.468990 0.878126
0.323438 0.181610 0.943831
0.329992 0.043079 0.688576
0.095793 0.009830 0.801123
0.349360 0.212307 0.266992
0.368002 0.414173 0.890974
0.471037 0.198481 0.584590
0.363141 0.971788 0.567570
0.193627 0.047362 0.347666
0.078823 0.824102 0.303324
0.892978 0.147594 0.589520
0.768770 0.021556 0.879563
0.173734 0.131239 0.179741
0.392798 0.563805 0.325374
0.241990 0.120892 0.993650
0.950192 0.297734 0.372967
0.618250 0.020735 0.852418
0.507541 0.634685 0.435244
0.857826 0.812930 0.263612
0.905927 0.426169 0.242918
0.551551 0.826687 0.394286
0.107476 0.018033 0.122876
0.027658 0.315680 0.861391
0.864926 0.042390 0.667640
0.937087 0.686836 0.209923
0.960032 0.214003 0.456393
0.838234 0.705078 0.379994
0.743514 0.670946 0.671558
0.434425 0.879627 0.032296
0.954834 0.877288 0.061284
0.239914 0.979709 0.690876
0.334337 0.292961 0.194138
0.397971 0.064623 0.159310
0.639743 0.559217 0.628284
0.319393 0.698422 0.808751
0.534981 0.605794 0.215716
0.932453 0.633508 0.954549
0.860046 0.170877 0.901505
0.581338 0.696935 0.013719
0.273513 0.037100 0.801600
0.857205 0.467507 0.627542
0.752721 0.974119 0.427029
0.371101 0.245019 0.119228
0.733240 0.911167 0.240259
0.659184 0.906727 0.920069
0.723200 0.826380 0.620956
0.665010 0.286470 0.644219
0.550957 0.831365 0.249487
0.136109 0.843937 0.995786
0.958540 0.434625 0.812213
0.025767 0.297417 0.212592
0.956965 0.060432 0.382506
0.647490 0.425935 0.083679
0.492244 0.694858 0.917290
0.595547 0.101746 0.165874
0.715210 0.552892 0.556047
0.727179 0.190203 0.479701
0.452899 0.191989 0.800239
0.189775 0.575804 0.255534
0.787141 0.426864 0.467209
0.674216 0.630124 0.240190
0.921028 0.344758 0.550895
0.051571 0.205424 0.679874
0.450943 0.397533 0.256193
0.520349 0.229449 0.854270
0.444768 0.451041 0.509270
0.033064 0.374076 0.800554
0.524198 0.393980 0.552048
0.743037 0.632495 0.584216
0.264430 0.570424 0.532054
0.538226 0.023322 0.450331
0.513191 0.768138 0.952403
0.790408 0.301653 0.043437
0.328417 0.622360 0.766373
0.186272 0.564519 0.339561
0.251027 0.787802 0.694365
0.045131 0.074015 0.734981
0.066324 0.363983 0.337433
0.129496 0.763412 0.395678
0.451936 0.568539 0.719855
0.084249 0.651408 0.904191
0.484451 0.939076 0.217938
0.355350 0.994250 0.900963
0.195476 0.033896 0.116821
0.772962 0.692030 0.614234
0.727780 0.125820 0.608612
0.602774 0.518449 0.155444
        </DataArray>
      </Points>
      <Verts>
        <DataArray type="Int64" Name="connectivity" format="ascii">
0
1
2
3
4
5
6
7
8
9
10
11
12
13
14
15
16
17
18
19
20
21
22
23
24
25
26
27
28
29
30
31
32
33
34
35
36
37
38
39
40
41
42
43
44
45
46
47
48
49
50
51
52
53
54
55
56
57
58
59
60
61
62
63
64
65
66
67
68
69
70
71
72
73
74
75
76
77
78
79
80
81
82
83
84
85
86
87
88
89
90
91
92
93
94
95
96
97
98
99
        </DataArray>
                <DataArray type="Int64" Name="offsets" format="ascii">
1
2
3
4
5
6
7
8
9
10
11
12
13
14
15
16
17
18
19
20
21
22
23
24
25
26
27
28
29
30
31
32
33
34
35
36
37
38
39
40
41
42
43
44
45
46
47
48
49
50
51
52
53
54
55
56
57
58
59
60
61
62
63
64
65
66
67
68
69
70
71
72
73
74
75
76
77
78
79
80
81
82
83
84
85
86
87
88
89
90
91
92
93
94
95
96
97
98
99
100
        </DataArray>
      </Verts>
      <PointData>
        <DataArray type="Float64" Name="attr0" format="ascii">
0.9494255115513571
0.2772013089725742
0.3764420624932078
0.5025017799332264
0.6614359288190325
0.8053668428653075
0.3425625507521617
0.8111961605906505
0.8657068173095086
0.5282861618193396
0.214236608606653
0.2221353998304645
0.680594814857191
0.8774320474465228
0.4984406968585957
0.9601666277925639
0.5306594567230626
0.3657425933677039
0.5150925589189433
0.8040309190731352
0.6808926208499387
0.1279096460771236
0.7173895546154168
0.9772254175146924
0.2721777140292443
0.9261723494035321
0.5805679414977469
0.3219828331740653
0.4972493485560411
0.9388731548381629
0.8330092412265906
0.7799672504048947
0.7254880137157217
0.1993079717739914
0.09078119132165742
0.8176525075372064
0.1918073961549404
0.9069241830581221
0.8645668710281296
0.695952144360192
0.6824800031341239
0.979790870342501
0.4915316593872702
0.533062993766245
0.08314063023629568
0.2479446063526233
0.3359150884971418
0.02661424990435399
0.9837725719046907
0.5231579972788887
0.7392922287158239
0.9149388710898632
0.4549547182605813
0.8200941759533742
0.2860576446233049
0.6762785442749604
0.07053213214011297
0.7765388461870426
0.5910597240593938
0.9984819197568661
0.735711369088054
0.5609745136178217
0.0158865346964977
0.152218946883353
0.9983656075790684
0.840241208746917
0.05025113255239505
0.06919920441266186
0.564634318200576
0.4968846929274105
0.432840115887653
0.8670855845012303
0.5023472525634117
0.07904535970695067
0.5469329783008746
0.3385687957803864
0.2200378856062713
0.3198014465999783
0.672417841072931
0.9292349927456887
0.5306052190574793
0.6784477328516321
0.2649488242971949
0.1416480470720455
0.999292118940832
0.6076466103048778
0.6256960117604137
0.2597865197994809
0.6593418257965977
0.5274326300586422
0.3000280478503424
0.4729391872077532
0.7189056741917014
0.3125101491750636
0.04781655126818617
0.6596050080100051
0.2950812080897944
0.8766287838217668
0.9549251848576007
0.1184958826664389
        </DataArray>
        <DataArray type="Float64" Name="attr1" NumberOfComponents="3" format="ascii">
0.6571555739933832 0.6820341128939604 0.02518314564359228 
0.2500879835569821 0.6072337703745655 0.2638248311058503 
0.7396733922699125 0.03901848358147848 0.1146077175556646 
0.1946695755726334 0.4017422504714959 0.4756998883207795 
0.4138168069004003 0.2947664899775914 0.6814651954074087 
0.01565379462407259 0.6531890539204753 0.103735458057497 
0.009091083421795125 0.6885247180757463 0.3157951362357497 
0.6670802011307887 0.03299479394546021 0.2624457183934535 
0.4348890704871672 0.1796943740082465 0.04217496675337899 
0.7585052627797679 0.1713345168757557 0.6467451936813327 
0.9645077288316061 0.4471376599058799 0.03444629486908843 
0.7471956094972809 0.863963710906001 0.9788803227809815 
0.62566228042093 0.4756770301723494 0.6153318194601071 
0.09299211758515233 0.9505830032515419 0.6722253143451059 
0.02645017368418622 0.3047248598631822 0.6745987100644975 
0.6686615507729996 0.1980326964063418 0.3493071788226687 
0.5113654972466801 0.7365903345697604 0.3312279932055492 
0.214901111687114 0.9206470803261515 0.302787051162316 
0.6241941796037396 0.193247658110574 0.903049902569945 
0.7328473309833337 0.7341872287289299 0.7744654341254079 
0.1221259757307703 0.636063844367832 0.9787770616920771 
0.6331329359053015 0.1726812214252161 0.2966203618344756 
0.1376587889913196 0.4041770662161628 0.3151690930523122 
0.4217935090783083 0.706946967306106 0.8248349531438038 
0.7771146899195785 0.3693085776784883 0.95955262637718 
0.1825391069601573 0.9074927713221438 0.264559493509792 
0.6122759172635731 0.9233602513916044 0.3226791018048865 
0.2391253489818772 0.9066873277040723 0.8127450929895299 
0.7996938585770811 0.2448921016208399 0.1226799780862965 
0.6948953039502281 0.8715041126722917 0.1840956210232826 
0.6328094533491836 0.9330005357353945 0.9477300544047123 
0.478003083738497 0.6106562853741198 0.5581955325053094 
0.5307729909984521 0.1758340794239966 0.6188529843376702 
0.1414846767943889 0.4442451005129865 0.7473051854188996 
0.002604618667343343 0.4223945350747581 0.0950723341223447 
0.8733763141215889 0.003198110031337426 0.5546110751784356 
0.03937279384612442 0.473210776935699 0.08701580898509556 
0.9865575484062743 0.508913879045791 0.05193486434783094 
0.5691947161363462 0.0912568468641225 0.2978953496562805 
0.5040035643596186 0.03460608700541496 0.582476376517454 
0.8839712795410439 0.6903714224740995 0.1257193295165341 
0.7095029071394806 0.00774649274174753 0.3492533763175582 
0.3546745624138626 0.2855701861970266 0.8213676552654394 
0.6497137266445375 0.3804705082995489 0.6583295338049859 
0.2404032527746618 0.3044949337819149 0.8414696825940768 
0.0602395664620029 0.4256887506108318 0.5739513549143676 
0.08292200389182101 0.5938715175288396 0.2935190553341438 
0.6643002337476703 0.9351239439867791 0.5054119029057157 
0.5935549472488673 0.9342896458998836 0.4497299907031795 
0.2333733564087314 0.680788907371094 0.4711486764852196 
0.1234190964030944 0.5410323643400183 0.9430184888453137 
0.8401625478453177 0.005623575763020862 0.5886364031635987 
0.05477363893074279 0.6431674712136539 0.6129049390494334 
0.8251454789074392 0.6779216131298237 0.3178769644266567 
0.0820058399895179 0.5612475983513298 0.3787540514586707 
0.05226698468799378 0.955961143385637 0.847171392828612 
0.7326588906661333 0.6729628368406729 0.470394818824532 
0.1089199671480246 0.1681100469231093 0.8346939022491249 
0.7545257176949989 0.4070000735078938 0.3042728645707141 
0.1584199249472376 0.2442104631363365 0.3689626239384698 
0.7876780259945998 0.9506122721589113 0.2419425753215595 
0.2983574162710657 0.02463204412505401 0.2688349693693058 
0.8784769937030612 0.1859880701238345 0.2134706332751221 
0.06647205861915273 0.6497496533441591 0.8866155439118782 
0.7378954248326386 0.3824079540174418 0.8949473940790876 
0.01188409537454876 0.7515271819422361 0.5734633116175126 
0.9520556258726606 0.4031107889473854 0.8746667323286335 
0.1314701067137206 0.2520027606505888 0.5671915672406593 
0.5446678197269013 0.7505564874734001 0.2583857552342183 
0.1194510752710276 0.3957681530640609 0.7933542387125295 
0.7972565208108833 0.8622832075402684 0.08557752073482726 
0.8995644520504565 0.5108648685222189 0.4872995538230522 
0.4745307557869094 0.3253206841995377 0.3500612101750163 
0.8787894363613848 0.04352294768042725 0.3563389464484812 
0.6424902132048783 0.6458942353977383 0.389726931047753 
0.9040027771126466 0.1083123690409994 0.8498000901426188 
0.1746324916954001 0.4942397370495649 0.01067389314497174 
0.8968017588384442 0.16414745540165 0.9948197156214995 
0.2753380829117549 0.4863718471087646 0.320905205411415 
0.7172847021290638 0.1012651232996652 0.3932986092319253 
0.4998421869241436 0.1600086189992686 0.7180233624679859 
0.8022973822419078 0.7690542467082598 0.4964640489795878 
0.07587800916476267 0.3023942667979774 0.8214589646917493 
0.2516842269097994 0.9435696718545772 0.22547319404526 
0.4782711055696611 0.03163601968826912 0.9558008387890641 
0.7636690883600763 0.821610879934574 0.7890730929611842 
0.8823415805202249 0.7281975728794012 0.5560091437976765 
0.7622165073350926 0.05964188111962663 0.5395310618730583 
0.236409804440844 0.8452150899240677 0.04726692706008119 
0.9214244219840391 0.9220276284394657 0.9364806292874364 
0.5443351273218472 0.2213664945581153 0.746972192895146 
0.4354780402800636 0.1825771160970548 0.2117585687843344 
0.9702302601792708 0.8693584260207794 0.8253592572522539 
0.9114904550781984 0.4594842652047592 0.9703609987765732 
0.467177638799335 0.3614567579415363 0.7826351631513633 
0.6553133737038292 0.2516477705204637 0.939517700374351 
0.1940754993380627 0.6297088087863714 0.3234435185680894 
0.5203978971017534 0.9548757295334359 0.6692056473487962 
0.768459309000308 0.303060293289339 0.968093197341965 
0.995774211363972 0.7807062432259758 0.01375700951844593 
        </DataArray>
        <DataArray type="Float32" Name="domain" format="ascii">
1.0
1.0
1.0
1.0
1.0
1.0
1.0
1.0
1.0
1.0
1.0
1.0
1.0
1.0
1.0
1.0
1.0
1.0
1.0
1.0
1.0
1.0
1.0
1.0
1.0
1.0
1.0
1.0
1.0
1.0
1.0
1.0
1.0
1.0
1.0
1.0
1.0
1.0
1.0
1.0
1.0
1.0
1.0
1.0
1.0
1.0
1.0
1.0
1.0
1.0
1.0
1.0
1.0
1.0
1.0
1.0
1.0
1.0
1.0
1.0
1.0
1.0
1.0
1.0
1.0
1.0
1.0
1.0
1.0
1.0
1.0
1.0
1.0
1.0
1.0
0.0
0.0
0.0
0.0
0.0
0.0
0.0
0.0
0.0
0.0
0.0
0.0
0.0
0.0
0.0
0.0
0.0
0.0
0.0
0.0
0.0
0.0
0.0
0.0
0.0
        </DataArray>
      </PointData>
    </Piece>
  </PolyData>
</VTKFile>