<VTKFile type="PolyData" version="1.0" byte_order="LittleEndian" header_type="UInt64">
  <PolyData>
    <Piece NumberOfPoints="100" NumberOfVerts="100">
      <Points>
        <DataArray type="Float64" Name="Points" NumberOfComponents="3" format="ascii">
0.1911204835906995 0.542772234863242 0.9391084311347881
0.9335227608990284 0.7101470601232037 0.6822569448583494
0.2284457291343968 0.5130972196287023 0.4389047685829435
0.7007540749848102 0.4361787988170149 0.434735135904171
0.7514191254733973 0.5225035562075192 0.1968549575205636
0.6663689566001441 0.2615225984428438 0.05012694930186171
0.5737078582990413 0.7683834686091247 0.02258709072014918
0.7502107521285253 0.3131366773447317 0.19084589686671
0.5077175316364888 0.273360300449021 0.2641722528430763
0.6702125993695983 0.9325986239441677 0.2129484658534879
0.5860363067658449 0.006718086774126586 0.5747754901765029
0.3363611228594737 0.2054122738980631 0.440431623980202
0.5538249255373027 0.7405553773322351 0.06481964953019299
0.7645033599042783 0.4689904130208351 0.8781258748480464
0.3234378533328707 0.1816097199071153 0.9438311790843349
0.3299919011397325 0.04307922253241799 0.6885764593311695
0.09579277662756258 0.009829631769177675 0.8011234804051354
0.349360455596186 0.2123068029934974 0.2669917034138964
0.3680017998591057 0.4141731548988385 0.8909741738387503
0.4710369047378018 0.1984811508103827 0.58458962613503
0.3631405123215446 0.9717880950906369 0.5675700369442022
0.1936272575083993 0.04736226888030662 0.3476663842575315
0.07882256103734367 0.8241018204371902 0.303324121142121
0.8929782123803263 0.1475944068992537 0.5895199090756849
0.7687700724840304 0.02155637553820555 0.8795632899834014
0.1737343588966251 0.1312391759682264 0.17974067401153
0.3927977460470061 0.5638048846443161 0.3253738999714265
0.2419903749870181 0.1208916897322556 0.9936496475741036
0.9501923853763414 0.2977338999986025 0.3729671694464203
0.6182502835904014 0.02073462096940045 0.8524181016942401
0.5075412101542851 0.6346851323569729 0.43524397656543
0.8578262048038532 0.812929702544152 0.2636116872245391
0.9059269298306075 0.4261686958250736 0.2429180805371524
0.5515512116013322 0.8266865900593406 0.3942855250116971
0.1074755519593714 0.01803298945630296 0.1228763367408531
0.02765798311323953 0.3156797104442121 0.861391111108758
0.8649262157897809 0.04239008713402315 0.6676403360126352
0.9370865563689328 0.6868358011418787 0.2099227371113735
0.960032065883264 0.2140025856373819 0.456392921993326
0.8382337566752761 0.7050784166412994 0.3799939060676871
0.7435136531742692 0.6709460550123145 0.6715583376718879
0.4344248930297676 0.8796267049016306 0.03229555323147422
0.954833504997737 0.8772878603184187 0.06128421306550307
0.2399140958488387 0.9797094480694694 0.6908761986108142
0.3343371959243262 0.2929608892682191 0.1941379300811617
0.397970957496217 0.06462349669792526 0.1593095428965476
0.6397433510796431 0.5592166427247148 0.6282844533546434
0.3193929764351841 0.6984220029793577 0.80875064534659
0.5349810723983771 0.6057937172680191 0.2157163788956979
0.9324525741709151 0.6335081746180038 0.9545486953786814
0.8600456622149583 0.1708769709007456 0.9015052784692937
0.5813384917185929 0.6969345811768739 0.01371900876345159
0.273512542120408 0.03710026944191182 0.8015997992821039
0.8572047884309643 0.4675072033575237 0.6275424309412285
0.752720738410614 0.9741190960751291 0.4270292877093753
0.3711011035502417 0.2450185705698009 0.1192280246786643
0.7332403106925821 0.911166650750131 0.2402591692561939
0.6591842769835218 0.9067273070538755 0.9200686265621014
0.7232003117803483 0.8263801707297656 0.6209564266628789
0.6650097755878187 0.2864695779110912 0.6442191851585083
0.5509565770388783 0.8313646028603592 0.2494865675692043
0.1361090191006153 0.8439365332741586 0.9957855816484497
0.9585403138964715 0.434624640534341 0.8122126430681847
0.02576744741491627 0.2974174612679438 0.212592003302373
0.9569645649953911 0.06043218399377904 0.3825060332275433
0.6474896468466662 0.4259350465489854 0.08367909021504266
0.4922437558452395 0.6948581858562035 0.9172901085497391
0.5955465333091344 0.1017459290559655 0.165873761677242
0.7152102458219928 0.5528916897937228 0.5560473017133553
0.7271787548776815 0.1902025601872231 0.4797005588283294
0.4528986639562535 0.1919889090620033 0.8002391630782564
0.1897753117653656 0.5758043692559914 0.2555337107016082
0.7871409951303429 0.4268640671265945 0.467209433220695
0.6742162717626354 0.6301241437298599 0.2401900376471737
0.9210282743810544 0.3447579399939822 0.5508949667909672
0.05157142968309511 0.2054241342910453 0.6798739928380242
0.4509434115835729 0.3975326198164688 0.2561928176990744
0.5203486320002244 0.2294494166367457 0.8542700815693149
0.4447680844716876 0.4510409422446783 0.5092696894382733
0.03306415512549497 0.3740759378419836 0.8005538842172577
0.5241983793563217 0.3939801634317356 0.5520479010641351
0.7430373780694616 0.6324951552634616 0.5842160128130502
0.2644295004362103 0.5704235038392136 0.5320537506919104
0.5382255930275537 0.02332186558129179 0.4503306467317368
0.5131908124251334 0.768137676982145 0.9524025549402448
0.7904084488794169 0.3016534904941667 0.04343723573561886
0.3284171929916287 0.6223598420050183 0.7663728286203123
0.1862722212978302 0.5645188321059016 0.3395605285933425
0.2510267294705721 0.7878024916687038 0.6943653734892768
0.04513135247624882 0.0740146524859524 0.7349814112600958
0.06632412990260676 0.3639832542445589 0.3374328332313183
0.1294963133384025 0.7634123220278825 0.3956784722881026
0.4519362433571665 0.5685394247674666 0.7198549109884282
0.08424916137743314 0.6514083344249947 0.9041910993847107
0.4844505633299935 0.9390759491645377 0.2179379692683285
0.3553499535865384 0.9942502239745807 0.9009634640994651
0.1954761365449633 0.03389617077359176 0.1168213434904714
0.7729623207017023 0.6920302497725793 0.6142337803662598
0.7277798272074294 0.1258201226006168 0.6086119675968718
0.602774259586458 0.5184492738831559 0.1554437490853277
        </DataArray>
      </Points>
      <Verts>
        <DataArray type="Int64" Name="connectivity" format="ascii">
0
1
2
3
4
5
6
7
8
9
10
11
12
13
14
15
16
17
18
19
20
21
22
23
24
25
26
27
28
29
30
31
32
33
34
35
36
37
38
39
40
41
42
43
44
45
46
47
48
49
50
51
52
53
54
55
56
57
58
59
60
61
62
63
64
65
66
67
68
69
70
71
72
73
74
75
76
77
78
79
80
81
82
83
84
85
86
87
88
89
90
91
92
93
94
95
96
97
98
99
        </DataArray>
                <DataArray type="Int64" Name="offsets" format="ascii">
1
2
3
4
5
6
7
8
9
10
11
12
13
14
15
16
17
18
19
20
21
22
23
24
25
26
27
28
29
30
31
32
33
34
35
36
37
38
39
40
41
42
43
44
45
46
47
48
49
50
51
52
53
54
55
56
57
58
59
60
61
62
63
64
65
66
67
68
69
70
71
72
73
74
75
76
77
78
79
80
81
82
83
84
85
86
87
88
89
90
91
92
93
94
95
96
97
98
99
100
        </DataArray>
      </Verts>
      <PointData>
        <DataArray type="Float64" Name="attr0" format="ascii">
0.9494255115513571
0.2772013089725742
0.3764420624932078
0.5025017799332264
0.6614359288190325
0.8053668428653075
0.3425625507521617
0.8111961605906505
0.8657068173095086
0.5282861618193396
0.214236608606653
0.2221353998304645
0.680594814857191
0.8774320474465228
0.4984406968585957
0.9601666277925639
0.5306594567230626
0.3657425933677039
0.5150925589189433
0.8040309190731352
0.6808926208499387
0.1279096460771236
0.7173895546154168
0.9772254175146924
0.2721777140292443
0.9261723494035321
0.5805679414977469
0.3219828331740653
0.4972493485560411
0.9388731548381629
0.8330092412265906
0.7799672504048947
0.7254880137157217
0.1993079717739914
0.09078119132165742
0.8176525075372064
0.1918073961549404
0.9069241830581221
0.8645668710281296
0.695952144360192
0.6824800031341239
0.979790870342501
0.4915316593872702
0.533062993766245
0.08314063023629568
0.2479446063526233
0.3359150884971418
0.02661424990435399
0.9837725719046907
0.5231579972788887
0.7392922287158239
0.9149388710898632
0.4549547182605813
0.8200941759533742
0.2860576446233049
0.6762785442749604
0.07053213214011297
0.7765388461870426
0.5910597240593938
0.9984819197568661
0.735711369088054
0.5609745136178217
0.0158865346964977
0.152218946883353
0.9983656075790684
0.840241208746917
0.05025113255239505
0.06919920441266186
0.564634318200576
0.4968846929274105
0.432840115887653
0.8670855845012303
0.5023472525634117
0.07904535970695067
0.5469329783008746
0.3385687957803864
0.2200378856062713
0.3198014465999783
0.672417841072931
0.9292349927456887
0.5306052190574793
0.6784477328516321
0.2649488242971949
0.1416480470720455
0.999292118940832
0.6076466103048778
0.6256960117604137
0.2597865197994809
0.6593418257965977
0.5274326300586422
0.3000280478503424
0.4729391872077532
0.7189056741917014
0.3125101491750636
0.04781655126818617
0.6596050080100051
0.2950812080897944
0.8766287838217668
0.9549251848576007
0.1184958826664389
        </DataArray>
        <DataArray type="Float64" Name="attr1" NumberOfComponents="3" format="ascii">
0.6571555739933832 0.6820341128939604 0.02518314564359228 
0.2500879835569821 0.6072337703745655 0.2638248311058503 
0.7396733922699125 0.03901848358147848 0.1146077175556646 
0.1946695755726334 0.4017422504714959 0.4756998883207795 
0.4138168069004003 0.2947664899775914 0.6814651954074087 
0.01565379462407259 0.6531890539204753 0.103735458057497 
0.009091083421795125 0.6885247180757463 0.3157951362357497 
0.6670802011307887 0.03299479394546021 0.2624457183934535 
0.4348890704871672 0.1796943740082465 0.04217496675337899 
0.7585052627797679 0.1713345168757557 0.6467451936813327 
0.9645077288316061 0.4471376599058799 0.03444629486908843 
0.7471956094972809 0.863963710906001 0.9788803227809815 
0.62566228042093 0.4756770301723494 0.6153318194601071 
0.09299211758515233 0.9505830032515419 0.6722253143451059 
0.02645017368418622 0.3047248598631822 0.6745987100644975 
0.6686615507729996 0.1980326964063418 0.3493071788226687 
0.5113654972466801 0.7365903345697604 0.3312279932055492 
0.214901111687114 0.9206470803261515 0.302787051162316 
0.6241941796037396 0.193247658110574 0.903049902569945 
0.7328473309833337 0.7341872287289299 0.7744654341254079 
0.1221259757307703 0.636063844367832 0.9787770616920771 
0.6331329359053015 0.1726812214252161 0.2966203618344756 
0.1376587889913196 0.4041770662161628 0.3151690930523122 
0.4217935090783083 0.706946967306106 0.8248349531438038 
0.7771146899195785 0.3693085776784883 0.95955262637718 
0.1825391069601573 0.9074927713221438 0.264559493509792 
0.6122759172635731 0.9233602513916044 0.3226791018048865 
0.2391253489818772 0.9066873277040723 0.8127450929895299 
0.7996938585770811 0.2448921016208399 0.1226799780862965 
0.6948953039502281 0.8715041126722917 0.1840956210232826 
0.6328094533491836 0.9330005357353945 0.9477300544047123 
0.478003083738497 0.6106562853741198 0.5581955325053094 
0.5307729909984521 0.1758340794239966 0.6188529843376702 
0.1414846767943889 0.4442451005129865 0.7473051854188996 
0.002604618667343343 0.4223945350747581 0.0950723341223447 
0.8733763141215889 0.003198110031337426 0.5546110751784356 
0.03937279384612442 0.473210776935699 0.08701580898509556 
0.9865575484062743 0.508913879045791 0.05193486434783094 
0.5691947161363462 0.0912568468641225 0.2978953496562805 
0.5040035643596186 0.03460608700541496 0.582476376517454 
0.8839712795410439 0.6903714224740995 0.1257193295165341 
0.7095029071394806 0.00774649274174753 0.3492533763175582 
0.3546745624138626 0.2855701861970266 0.8213676552654394 
0.6497137266445375 0.3804705082995489 0.6583295338049859 
0.2404032527746618 0.3044949337819149 0.8414696825940768 
0.0602395664620029 0.4256887506108318 0.5739513549143676 
0.08292200389182101 0.5938715175288396 0.2935190553341438 
0.6643002337476703 0.9351239439867791 0.5054119029057157 
0.5935549472488673 0.9342896458998836 0.4497299907031795 
0.2333733564087314 0.680788907371094 0.4711486764852196 
0.1234190964030944 0.5410323643400183 0.9430184888453137 
0.8401625478453177 0.005623575763020862 0.5886364031635987 
0.05477363893074279 0.6431674712136539 0.6129049390494334 
0.8251454789074392 0.6779216131298237 0.3178769644266567 
0.0820058399895179 0.5612475983513298 0.3787540514586707 
0.05226698468799378 0.955961143385637 0.847171392828612 
0.7326588906661333 0.6729628368406729 0.470394818824532 
0.1089199671480246 0.1681100469231093 0.8346939022491249 
0.7545257176949989 0.4070000735078938 0.3042728645707141 
0.1584199249472376 0.2442104631363365 0.3689626239384698 
0.7876780259945998 0.9506122721589113 0.2419425753215595 
0.2983574162710657 0.02463204412505401 0.2688349693693058 
0.8784769937030612 0.1859880701238345 0.2134706332751221 
0.06647205861915273 0.6497496533441591 0.8866155439118782 
0.7378954248326386 0.3824079540174418 0.8949473940790876 
0.01188409537454876 0.7515271819422361 0.5734633116175126 
0.9520556258726606 0.4031107889473854 0.8746667323286335 
0.1314701067137206 0.2520027606505888 0.5671915672406593 
0.5446678197269013 0.7505564874734001 0.2583857552342183 
0.1194510752710276 0.3957681530640609 0.7933542387125295 
0.7972565208108833 0.8622832075402684 0.08557752073482726 
0.8995644520504565 0.5108648685222189 0.4872995538230522 
0.4745307557869094 0.3253206841995377 0.3500612101750163 
0.8787894363613848 0.04352294768042725 0.3563389464484812 
0.6424902132048783 0.6458942353977383 0.389726931047753 
0.9040027771126466 0.1083123690409994 0.8498000901426188 
0.1746324916954001 0.4942397370495649 0.01067389314497174 
0.8968017588384442 0.16414745540165 0.9948197156214995 
0.2753380829117549 0.4863718471087646 0.320905205411415 
0.7172847021290638 0.1012651232996652 0.3932986092319253 
0.4998421869241436 0.1600086189992686 0.7180233624679859 
0.8022973822419078 0.7690542467082598 0.4964640489795878 
0.07587800916476267 0.3023942667979774 0.8214589646917493 
0.2516842269097994 0.9435696718545772 0.22547319404526 
0.4782711055696611 0.03163601968826912 0.9558008387890641 
0.7636690883600763 0.821610879934574 0.7890730929611842 
0.8823415805202249 0.7281975728794012 0.5560091437976765 
0.7622165073350926 0.05964188111962663 0.5395310618730583 
0.236409804440844 0.8452150899240677 0.04726692706008119 
0.9214244219840391 0.9220276284394657 0.9364806292874364 
0.5443351273218472 0.2213664945581153 0.746972192895146 
0.4354780402800636 0.1825771160970548 0.2117585687843344 
0.9702302601792708 0.8693584260207794 0.8253592572522539 
0.9114904550781984 0.4594842652047592 0.9703609987765732 
0.467177638799335 0.3614567579415363 0.7826351631513633 
0.6553133737038292 0.2516477705204637 0.939517700374351 
0.1940754993380627 0.6297088087863714 0.3234435185680894 
0.5203978971017534 0.9548757295334359 0.6692056473487962 
0.768459309000308 0.303060293289339 0.968093197341965 
0.995774211363972 0.7807062432259758 0.01375700951844593 
        </DataArray>
        <DataArray type="Float32" Name="domain" format="ascii">
1.0
1.0
1.0
1.0
1.0
1.0
1.0
1.0
1.0
1.0
1.0
1.0
1.0
1.0
1.0
1.0
1.0
1.0
1.0
1.0
1.0
1.0
1.0
1.0
1.0
1.0
1.0
1.0
1.0
1.0
1.0
1.0
1.0
1.0
1.0
1.0
1.0
1.0
1.0
1.0
1.0
1.0
1.0
1.0
1.0
1.0
1.0
1.0
1.0
1.0
1.0
1.0
1.0
1.0
1.0
1.0
1.0
1.0
1.0
1.0
1.0
1.0
1.0
1.0
1.0
1.0
1.0
1.0
1.0
1.0
1.0
1.0
1.0
1.0
1.0
0.0
0.0
0.0
0.0
0.0
0.0
0.0
0.0
0.0
0.0
0.0
0.0
0.0
0.0
0.0
0.0
0.0
0.0
0.0
0.0
0.0
0.0
0.0
0.0
0.0
        </DataArray>
      </PointData>
    </Piece>
  </PolyData>
</VTKFile>
