<VTKFile type="PolyData" version="1.0" byte_order="LittleEndian" header_type="UInt64">
  <PolyData>
    <Piece NumberOfPoints="300" NumberOfVerts="300">
      <Points>
        <DataArray type="Float64" Name="Points" NumberOfComponents="3" format="ascii">
0.191120 0.542772 0.939108
0.933523 0.710147 0.682257
0.228446 0.513097 0.438905
0.700754 0.436179 0.434735
0.751419 0.522504 0.196855
0.666369 0.261523 0.050127
0.573708 0.768383 0.022587
0.750211 0.313137 0.190846
0.507718 0.273360 0.264172
0.670213 0.932599 0.212948
0.586036 0.006718 0.574775
0.336361 0.205412 0.440432
0.553825 0.740555 0.064820
0.764503 0.468990 0.878126
0.323438 0.181610 0.943831
0.329992 0.043079 0.688576
0.095793 0.009830 0.801123
0.349360 0.212307 0.266992
0.368002 0.414173 0.890974
0.471037 0.198481 0.584590
0.363141 0.971788 0.567570
0.193627 0.047362 0.347666
0.078823 0.824102 0.303324
0.892978 0.147594 0.589520
0.768770 0.021556 0.879563
0.173734 0.131239 0.179741
0.392798 0.563805 0.325374
0.241990 0.120892 0.993650
0.950192 0.297734 0.372967
0.618250 0.020735 0.852418
0.507541 0.634685 0.435244
0.857826 0.812930 0.263612
0.905927 0.426169 0.242918
0.551551 0.826687 0.394286
0.107476 0.018033 0.122876
0.027658 0.315680 0.861391
0.864926 0.042390 0.667640
0.937087 0.686836 0.209923
0.960032 0.214003 0.456393
0.838234 0.705078 0.379994
0.743514 0.670946 0.671558
0.434425 0.879627 0.032296
0.954834 0.877288 0.061284
0.239914 0.979709 0.690876
0.334337 0.292961 0.194138
0.397971 0.064623 0.159310
0.639743 0.559217 0.628284
0.319393 0.698422 0.808751
0.534981 0.605794 0.215716
0.932453 0.633508 0.954549
0.860046 0.170877 0.901505
0.581338 0.696935 0.013719
0.273513 0.037100 0.801600
0.857205 0.467507 0.627542
0.752721 0.974119 0.427029
0.371101 0.245019 0.119228
0.733240 0.911167 0.240259
0.659184 0.906727 0.920069
0.723200 0.826380 0.620956
0.665010 0.286470 0.644219
0.550957 0.831365 0.249487
0.136109 0.843937 0.995786
0.958540 0.434625 0.812213
0.025767 0.297417 0.212592
0.956965 0.060432 0.382506
0.647490 0.425935 0.083679
0.492244 0.694858 0.917290
0.595547 0.101746 0.165874
0.715210 0.552892 0.556047
0.727179 0.190203 0.479701
0.452899 0.191989 0.800239
0.189775 0.575804 0.255534
0.787141 0.426864 0.467209
0.674216 0.630124 0.240190
0.921028 0.344758 0.550895
0.051571 0.205424 0.679874
0.450943 0.397533 0.256193
0.520349 0.229449 0.854270
0.444768 0.451041 0.509270
0.033064 0.374076 0.800554
0.524198 0.393980 0.552048
0.743037 0.632495 0.584216
0.264430 0.570424 0.532054
0.538226 0.023322 0.450331
0.513191 0.768138 0.952403
0.790408 0.301653 0.043437
0.328417 0.622360 0.766373
0.186272 0.564519 0.339561
0.251027 0.787802 0.694365
0.045131 0.074015 0.734981
0.066324 0.363983 0.337433
0.129496 0.763412 0.395678
0.451936 0.568539 0.719855
0.084249 0.651408 0.904191
0.484451 0.939076 0.217938
0.355350 0.994250 0.900963
0.195476 0.033896 0.116821
0.772962 0.692030 0.614234
0.727780 0.125820 0.608612
0.602774 0.518449 0.155444
0.369033 0.299516 0.011738
0.475438 0.421222 0.071321
0.488239 0.462790 0.163958
0.386197 0.484129 0.086628
0.120758 0.061846 0.487070
0.462610 0.389263 0.483895
0.228595 0.232147 0.135940
0.499425 0.308550 0.230081
0.087310 0.042081 0.378270
0.188056 0.031825 0.387216
0.345997 0.312009 0.096517
0.398427 0.201282 0.242778
0.354047 0.115364 0.036240
0.228931 0.360446 0.417346
0.143610 0.161319 0.339278
0.282976 0.258190 0.285882
0.432920 0.326511 0.162626
0.263382 0.388375 0.282068
0.135151 0.377638 0.265092
0.369358 0.023984 0.158936
0.321014 0.248223 0.173368
0.226998 0.475005 0.495730
0.019942 0.433206 0.393383
0.434013 0.141503 0.051140
0.227366 0.152198 0.056331
0.038190 0.345733 0.346530
0.197246 0.386069 0.292313
0.130798 0.337481 0.042791
0.137051 0.472957 0.441009
0.226778 0.190582 0.355922
0.487073 0.487445 0.312289
0.028843 0.018109 0.043890
0.470008 0.105539 0.377718
0.241189 0.290279 0.357752
0.412688 0.177427 0.496471
0.256056 0.231897 0.011382
0.147882 0.234706 0.314979
0.357467 0.185318 0.495461
0.272803 0.390637 0.400779
0.092272 0.125044 0.279622
0.388039 0.459262 0.441601
0.399029 0.140674 0.412037
0.231982 0.211471 0.468093
0.457421 0.090837 0.142090
0.152496 0.035710 0.201575
0.002651 0.399729 0.457187
0.464700 0.132774 0.078359
0.170972 0.140148 0.175650
0.385566 0.107831 0.386325
0.347609 0.148431 0.170577
0.164102 0.297584 0.335798
0.176064 0.100559 0.327196
0.172839 0.028758 0.360324
0.048560 0.359953 0.428980
0.434215 0.161937 0.105788
0.491057 0.168019 0.295184
0.393718 0.343154 0.049346
0.165409 0.175407 0.210349
0.240776 0.406808 0.304134
0.052120 0.236228 0.332001
0.332446 0.312939 0.490474
0.384584 0.136616 0.039850
0.041979 0.277051 0.488044
0.152317 0.417591 0.058421
0.077951 0.451642 0.368014
0.251505 0.324998 0.187823
0.050005 0.213619 0.455739
0.283974 0.045462 0.410410
0.177204 0.477689 0.255347
0.390044 0.208570 0.444316
0.199245 0.207366 0.139578
0.025771 0.444025 0.393377
0.130163 0.128066 0.034143
0.220677 0.493486 0.322588
0.010527 0.407131 0.456489
0.098184 0.304481 0.145582
0.303170 0.318027 0.340675
0.340671 0.495759 0.253506
0.050337 0.403730 0.441738
0.131048 0.489254 0.144981
0.375028 0.425500 0.329455
0.462892 0.329894 0.155832
0.017700 0.176812 0.303820
0.238059 0.297001 0.201085
0.285588 0.070994 0.398236
0.280854 0.271676 0.170450
0.158920 0.036350 0.356981
0.277225 0.099905 0.335509
0.166247 0.078997 0.057278
0.277047 0.351886 0.026585
0.187544 0.468093 0.186185
0.187124 0.369427 0.226338
0.126269 0.268142 0.486430
0.028362 0.476250 0.491052
0.463467 0.047069 0.362822
0.160605 0.086875 0.062252
0.133424 0.473771 0.125624
0.348983 0.328602 0.366171
0.003919 0.496709 0.174369
0.288525 0.016649 0.339237
0.118551 0.284626 0.040045
0.229319 0.051703 0.156612
0.289464 0.043055 0.230019
0.128697 0.237347 0.027330
0.083331 0.140340 0.062204
0.168957 0.146042 0.167754
0.211293 0.004162 0.154877
0.081112 0.084725 0.271467
0.221586 0.065918 0.040172
0.180773 0.137546 0.074526
0.266663 0.191928 0.168763
0.104026 0.075138 0.183329
0.169742 0.141202 0.247453
0.052619 0.159521 0.165625
0.213524 0.052483 0.036394
0.224958 0.120398 0.041162
0.018617 0.248016 0.121734
0.073585 0.177285 0.244851
0.088333 0.233388 0.028923
0.127583 0.004240 0.020761
0.134085 0.163042 0.138277
0.269481 0.009191 0.204128
0.125259 0.015738 0.046834
0.190405 0.026362 0.053137
0.219299 0.187878 0.296406
0.228715 0.090299 0.075487
0.114361 0.175878 0.060813
0.025169 0.122417 0.028319
0.288496 0.108410 0.286945
0.183611 0.216238 0.182742
0.159681 0.195184 0.128106
0.295720 0.053621 0.143373
0.147892 0.222327 0.254465
0.172590 0.298237 0.155147
0.272134 0.257444 0.049840
0.035742 0.096029 0.128343
0.068981 0.043026 0.069018
0.219187 0.158450 0.013378
0.189143 0.053835 0.078823
0.043211 0.155552 0.039652
0.217259 0.231674 0.249962
0.164037 0.202389 0.252910
0.048510 0.152404 0.205957
0.204658 0.004322 0.044297
0.168889 0.224852 0.221542
0.137715 0.166512 0.026851
0.228219 0.042420 0.107482
0.022607 0.186198 0.240395
0.120443 0.264825 0.090921
0.056556 0.198868 0.089208
0.256396 0.168550 0.265397
0.266806 0.118624 0.035927
0.257922 0.096746 0.200882
0.255168 0.012391 0.065189
0.025979 0.031622 0.176754
0.049886 0.053168 0.106784
0.138538 0.173756 0.018395
0.123969 0.015724 0.263539
0.293842 0.133309 0.258649
0.157130 0.150916 0.269278
0.255548 0.230316 0.173530
0.176835 0.070607 0.000577
0.175628 0.097939 0.237882
0.274028 0.209767 0.006667
0.248491 0.146381 0.279762
0.078035 0.151517 0.259897
0.044696 0.234419 0.132030
0.258663 0.299681 0.109536
0.262694 0.052572 0.092809
0.147086 0.001923 0.204068
0.140134 0.081926 0.037603
0.282019 0.187575 0.264492
0.280932 0.291277 0.152808
0.165250 0.202107 0.199372
0.188213 0.294921 0.238358
0.181157 0.207082 0.154922
0.130117 0.006155 0.080761
0.215823 0.070212 0.074666
0.232166 0.207217 0.234931
0.143946 0.292738 0.154480
0.178165 0.008385 0.005120
0.044910 0.159371 0.097925
0.231587 0.260975 0.155817
0.200283 0.145669 0.077631
0.053339 0.121780 0.027141
0.183462 0.265249 0.160318
0.044482 0.157596 0.142178
0.166244 0.195940 0.041539
0.119972 0.224156 0.142231
0.116722 0.118538 0.208967
0.146648 0.156782 0.157538
0.087086 0.075396 0.233221
0.015056 0.042668 0.121880
0.245237 0.220832 0.095027
0.023365 0.068338 0.062054
0.270623 0.144397 0.249118
0.021136 0.101558 0.082519
0.258095 0.288331 0.149363
0.175789 0.280555 0.166442
0.131178 0.070647 0.282866
        </DataArray>
      </Points>
      <Verts>
        <DataArray type="Int64" Name="connectivity" format="ascii">
0
1
2
3
4
5
6
7
8
9
10
11
12
13
14
15
16
17
18
19
20
21
22
23
24
25
26
27
28
29
30
31
32
33
34
35
36
37
38
39
40
41
42
43
44
45
46
47
48
49
50
51
52
53
54
55
56
57
58
59
60
61
62
63
64
65
66
67
68
69
70
71
72
73
74
75
76
77
78
79
80
81
82
83
84
85
86
87
88
89
90
91
92
93
94
95
96
97
98
99
100
101
102
103
104
105
106
107
108
109
110
111
112
113
114
115
116
117
118
119
120
121
122
123
124
125
126
127
128
129
130
131
132
133
134
135
136
137
138
139
140
141
142
143
144
145
146
147
148
149
150
151
152
153
154
155
156
157
158
159
160
161
162
163
164
165
166
167
168
169
170
171
172
173
174
175
176
177
178
179
180
181
182
183
184
185
186
187
188
189
190
191
192
193
194
195
196
197
198
199
200
201
202
203
204
205
206
207
208
209
210
211
212
213
214
215
216
217
218
219
220
221
222
223
224
225
226
227
228
229
230
231
232
233
234
235
236
237
238
239
240
241
242
243
244
245
246
247
248
249
250
251
252
253
254
255
256
257
258
259
260
261
262
263
264
265
266
267
268
269
270
271
272
273
274
275
276
277
278
279
280
281
282
283
284
285
286
287
288
289
290
291
292
293
294
295
296
297
298
299
        </DataArray>
                <DataArray type="Int64" Name="offsets" format="ascii">
1
2
3
4
5
6
7
8
9
10
11
12
13
14
15
16
17
18
19
20
21
22
23
24
25
26
27
28
29
30
31
32
33
34
35
36
37
38
39
40
41
42
43
44
45
46
47
48
49
50
51
52
53
54
55
56
57
58
59
60
61
62
63
64
65
66
67
68
69
70
71
72
73
74
75
76
77
78
79
80
81
82
83
84
85
86
87
88
89
90
91
92
93
94
95
96
97
98
99
100
101
102
103
104
105
106
107
108
109
110
111
112
113
114
115
116
117
118
119
120
121
122
123
124
125
126
127
128
129
130
131
132
133
134
135
136
137
138
139
140
141
142
143
144
145
146
147
148
149
150
151
152
153
154
155
156
157
158
159
160
161
162
163
164
165
166
167
168
169
170
171
172
173
174
175
176
177
178
179
180
181
182
183
184
185
186
187
188
189
190
191
192
193
194
195
196
197
198
199
200
201
202
203
204
205
206
207
208
209
210
211
212
213
214
215
216
217
218
219
220
221
222
223
224
225
226
227
228
229
230
231
232
233
234
235
236
237
238
239
240
241
242
243
244
245
246
247
248
249
250
251
252
253
254
255
256
257
258
259
260
261
262
263
264
265
266
267
268
269
270
271
272
273
274
275
276
277
278
279
280
281
282
283
284
285
286
287
288
289
290
291
292
293
294
295
296
297
298
299
300
        </DataArray>
      </Verts>
      <PointData>
        <DataArray type="Float64" Name="attr0" format="ascii">
0.8529708579401621
0.2985329875729359
0.3744993175498679
0.6559721579980234
0.8652724207540636
0.6160347680020916
0.08231235314984231
0.9933322411992903
0.2320302048548915
0.1183546301357659
0.0190601420965697
0.941814432879065
0.6032289810929312
0.3546370410571634
0.7111624725111003
0.4039625097513374
0.9216934463839542
0.107293812740923
0.2456609216771736
0.3170582590079595
0.957745724843002
0.206325862460618
0.6536887950945232
0.447750972142559
0.34115584947115
0.8043211508522178
0.467846069499922
0.5357695154213489
0.7719999902080744
0.7299173578014982
0.2586038206896727
0.3270002401773817
0.4396036824027059
0.3925552259233989
0.004308898232733413
0.6981738399722736
0.4786126483331375
0.6513046246714402
0.6595164804442243
0.393816659276459
0.532903910599228
0.9791281679742373
0.02307406532435023
0.4556608060581326
0.01003828295039093
0.03055396302111728
0.9450146185955896
0.5608311237018411
0.7953176140807021
0.01379246217487731
0.7882683762403818
0.5122851883004023
0.3974684533209221
0.9379540018560579
0.5948561133840792
0.05506884257538764
0.6949601295893266
0.04387620601622565
0.6363480374513436
0.245933448315629
0.3821134183639132
0.4021310906847329
0.937464880087662
0.5737639746750872
0.8089212808716477
0.4420138972615759
0.9685401150637585
0.7011389282061071
0.7462636319704988
0.3388372690701684
0.2564685897638702
0.05827589563174364
0.1396204393172542
0.3399560324195977
0.5389212656119273
0.5005374045574398
0.1072274886038026
0.6504886261418049
0.7827500771811464
0.7392345933526593
0.9591449932385492
0.687043595273493
0.01753723085041287
0.387559028161895
0.2418156078821907
0.1735155423295146
0.3568959651249946
0.5593037020604574
0.9134971558053525
0.703680738246217
0.9183535497084476
0.6697221700243083
0.07820558218369
0.4964982911495034
0.7684861557704926
0.4063317680701931
0.6813778792594662
0.05912126551423163
0.7878196813222861
0.5576111080322362
0.5873616972997031
0.8740047719916306
0.2134401839163899
0.001495548988927366
0.9837323594914132
0.8105870784211032
0.6399922230560369
0.05851734985666473
0.07949429374211733
0.5538781934632555
0.6482655337786928
0.8818434477402626
0.9705274093567732
0.9642820872998414
0.8888650357775087
0.3289186440739228
0.1292980471023833
0.6068508265973763
0.5726061006669858
0.3960887552722875
0.899591979617443
0.9487336573895376
0.1422058638920049
0.9483228959383802
0.08681851621399703
0.2422499767307891
0.1743566898282819
0.1233243711184131
0.3780051456401101
0.5419157773526777
0.02661112229031924
0.2338660046300544
0.6399148285203079
0.1825596493750067
0.2825411649967818
0.1883140822461275
0.5717845258434375
0.832912393923424
0.4957253935301092
0.1759240237642433
0.3290277222036255
0.4449715123302436
0.6027423515437439
0.2816667536824631
0.6163736537022639
0.0327231983967483
0.774581616616537
0.4607170550335585
0.7566994378544859
0.2297571589100374
0.7387367441604209
0.368085801197176
0.07114449768739543
0.3514172717223795
0.8829912322652567
0.9934198996082787
0.8266379650092507
0.7169545603837099
0.00611467240093524
0.7049447897798639
0.976631911948029
0.02015841355539932
0.4784242394480742
0.7353436910848395
0.9707180732066193
0.5744139421384716
0.07556317440440731
0.2033864177282032
0.4956409973112675
0.9734943490598843
0.04775531122099826
0.3251078951521274
0.6214602691487129
0.9254883225422873
0.04193667832671819
0.1200856109521884
0.7080641972329169
0.8810247113550899
0.9400363215524534
0.5598458093312355
0.6154476305863599
0.0959947627987737
0.002017161342307385
0.2200292413029684
0.9431561182983424
0.9700262642139447
0.6571888855392165
0.4231477862116192
0.8581523069375416
0.09990911576901138
0.7024314225640002
0.4111729562696195
0.2585145496956471
0.1346780498816268
0.7154942575304331
0.7840249290298554
0.1056414585999951
0.5404205077605226
0.5433265997360802
0.3691963272312673
0.2975724726926663
0.5015477649860327
0.5941165384863892
0.1929470751467407
0.5954264208695729
0.5631490531083434
0.8414956646312514
0.4295211343888561
0.648454847443637
0.560535067198549
0.02805235491690582
0.864735330983654
0.0198561607301905
0.604269526617476
0.9044886765049358
0.4677879728992526
0.7763534010032409
0.7293949354303093
0.4480733371115879
0.7979130857633832
0.4535533804662742
0.004086396887858213
0.8337276639259757
0.3346387618991366
0.3684492295754844
0.4435953060427703
0.3963957473652457
0.3156907186770389
0.8560400538351201
0.08915854497386211
0.2861218879529639
0.7489091503671793
0.8645090193652971
0.7681606853063402
0.1926944040727362
0.3461309974798323
0.9421880294372383
0.3957102767211803
0.3976733373023228
0.6269239491657708
0.7652793506787721
0.9726949448358757
0.09021607130290192
0.355192995464805
0.189638748909515
0.7518260240313476
0.3089158317032662
0.8314760244304892
0.5276415508577407
0.350985881476204
0.445174180229579
0.5167725861460098
0.8629207844552953
0.06411378385307556
0.2860149083258515
0.9771696452623374
0.211858454061738
0.6650727020273578
0.6309843158205113
0.7679862045832042
0.09576546163495375
0.6695391525656268
0.2205857975778236
0.5431651854686601
0.111934672756151
0.3545572870156927
0.5758215791658398
0.3494709856577818
0.2549463039008219
0.9099419254763322
0.9574280549039003
0.2278405480422822
0.5905657885174427
0.03862984406825628
0.5241008112094827
0.6429567196672052
0.01495585752885982
0.7304557758707293
0.8697113558325398
0.3289561917404848
0.1277550383807369
0.7711007721856699
0.5118949986007554
0.02170832384298168
0.5705871882054083
0.3277772372459167
0.2892382127282963
0.7211331228161542
0.4184968034185018
0.300132344104288
0.00720310536809121
0.3115554718246891
0.4712838695983943
0.09712130478717326
0.9744083976957908
0.05794625493793457
0.9391234186761438
0.937237281847169
0.6360100809782696
0.5553766244298888
        </DataArray>
        <DataArray type="Float64" Name="attr1" NumberOfComponents="3" format="ascii">
0.974854616692823 0.1827120239926912 0.3535236276902614 
0.4241600935700535 0.1101104546756901 0.5790348923397088 
0.1902462839194358 0.06141989558869047 0.3732455410653513 
0.6113956446706338 0.8041492149680158 0.7878329829369518 
0.2583923801973498 0.08826473770278286 0.516999454695266 
0.9328642718340903 0.7964004998577756 0.7617198488387652 
0.2024633024342063 0.9337424079730443 0.2332228584060339 
0.6473724727298261 0.9371001848778221 0.327532752031678 
0.380907387528146 0.7448411319661694 0.3949404352368133 
0.5634098448495335 0.2960636323336215 0.08118920047712083 
0.7858039302351866 0.9718763048425892 0.4657842521715051 
0.5460900740949017 0.5123131927045467 0.06088726592208852 
0.4147853982100331 0.3041754116750437 0.9830479016606473 
0.636676066491438 0.4065047456386943 0.3107938767360552 
0.665552153174974 0.7402905848620969 0.6898369643884539 
0.8266589993952499 0.1784595024406633 0.9314455003796864 
0.7306508090204322 0.3393511041815621 0.4878007986173961 
0.812279267091174 0.3438141465448709 0.05609747718270054 
0.8650802260427363 0.3094309322492075 0.7284318202974127 
0.540727075170387 0.3872221906728939 0.7888144765566967 
0.9691333088701901 0.2956241772996149 0.239996703928338 
0.9060355553375391 0.6311220977776115 0.0572163555504678 
0.5894753410995587 0.1962015907297835 0.4864680392265003 
0.113449059141125 0.009212146276043659 0.4017781771711175 
0.05546112169722974 0.699284599768331 0.9515968207495302 
0.323825816705904 0.9396087779013399 0.8824759452219699 
0.759130632151323 0.416966356375736 0.6945408032301158 
0.2787999674776569 0.2640223087444797 0.5175087822054006 
0.9518524534293206 0.2208625573102093 0.7925265194882981 
0.6604245043543985 0.03514157233985999 0.7651433044741194 
0.6208919383953828 0.917063092385855 0.2996711501387548 
0.6331987948467961 0.2852340031949645 0.2312220736727016 
0.4688247051235173 0.6116786272676296 0.8488709470960912 
0.6856259211499123 0.4372996788298247 0.5132529805352665 
0.7864857312354792 0.8713553525175176 0.7607441096283756 
0.03531390892559946 0.783949646500894 0.1752600515376497 
0.2674782540334956 0.342229993388881 0.5800823892559472 
0.2304248741220567 0.4929352938230451 0.160316743580477 
0.9211612888978975 0.06894496126615211 0.2015761268783472 
0.5015173340209214 0.1940016212435432 0.587393943179681 
0.4677942490820799 0.3057774473886111 0.4958839467745815 
0.5834141887801634 0.2494362093278038 0.6523665945733121 
0.9476013966148713 0.8729798854920175 0.6258417842323697 
0.07456589184023166 0.2816161360677257 0.1563227252772438 
0.7220195044195189 0.1972917189368551 0.9517298636717118 
0.6288804073683543 0.3116755321101865 0.8884595244245327 
0.4836309680325766 0.6064498901337153 0.06215088834885932 
0.7009500946379499 0.9068988413052174 0.8061630149343223 
0.5099639219651166 0.03860291487602381 0.2881065012011181 
0.1574303374358312 0.7371178477829705 0.7040730150397527 
0.6349016487901556 0.8211598015291803 0.3918759441506695 
0.003889593759603056 0.4352304127834596 0.8705321211039405 
0.3647160786834005 0.03622204133485349 0.02821915991221594 
0.5238010750506999 0.2221801976104359 0.2451297814281984 
0.505365086949726 0.3006779124025824 0.2938547810568219 
0.1663796004530138 0.5242462812344328 0.06217061445947242 
0.6070891676437625 0.6403463833777484 0.1851591436727163 
0.8117475300972594 0.2786359373579566 0.4168594251773975 
0.2731471677435808 0.04158330380842867 0.8500852410913979 
0.6642985371107708 0.850462824874342 0.7662774453562323 
0.7986866490455872 0.7289335356424872 0.002117605180424822 
0.4334843615379723 0.6378341726316912 0.3287259005807685 
0.08847253462836493 0.8852004246389491 0.4148982763686691 
0.2963464784918602 0.3210693647521225 0.988769416004061 
0.2324456436408471 0.3373963989608938 0.6322525827529595 
0.6554861235639611 0.8022766319092938 0.1004898435899569 
0.07537887125491217 0.4623344750318981 0.6573912030284333 
0.5525154210382535 0.9374337264162331 0.7782122563672195 
0.2593105289808891 0.348355036532341 0.5672164917610509 
0.6842615305519376 0.1400620198622057 0.1539858772168002 
0.6642150701190275 0.3211422754353181 0.4370744142508719 
0.4208756513330733 0.664464519049756 0.08784786258458725 
0.8343186558530113 0.7353205668109839 0.7499294421868727 
0.8967710838668183 0.4597146262136685 0.6796810679697985 
0.1976503617141161 0.1261739138857583 0.3278354027644566 
0.7104536952867854 0.8386217270332288 0.6495257242817778 
0.4271756641440207 0.9333631552600473 0.5513873260694615 
0.5743707359887796 0.4243183075802781 0.5194110521024973 
0.3616841827231999 0.2720152278095413 0.03516268518978605 
0.914091052527497 0.7507826351789838 0.7903350930240307 
0.9840599254313578 0.3458912003106013 0.813044369773453 
0.05248166734702808 0.05372163744004367 0.3895879847046044 
0.08259923170199654 0.348744772212233 0.6464237798254826 
0.409982422408656 0.5866943187607945 0.015410647021881 
0.1820728642949495 0.2833437739017681 0.3166681906130779 
0.981453806636178 0.006706185402951117 0.9473736591416534 
0.2595895325021867 0.2080055502206061 0.3211864084838021 
0.9312996983382387 0.2676533063558613 0.9780821057604243 
0.6824234089895974 0.6156910519973883 0.2228432115061007 
0.3408621771536478 0.3732693957289357 0.8470042031970787 
0.435998773232103 0.8840159678906128 0.8944224583011016 
0.3391802819263282 0.9534511717718788 0.7991526789035869 
0.1966310107630533 0.9317092153096063 0.3362086681480479 
0.9169337072330835 0.5817449912048201 0.6951519114919231 
0.1365366926712279 0.4202633102330084 0.9374140135769667 
0.900171511154542 0.9915177729020278 0.6919283165168351 
0.3602261946721812 0.4991337629039149 0.01001521176192201 
0.6424808762304108 0.05337400242994818 0.1190055126235795 
0.8125889982038229 0.8529339000336202 0.5976826385140034 
0.3563753613939624 0.9276032101234406 0.9415125234790553 
0.1188459509895901 0.2845806263924667 0.4985478715977874 
0.4655708167862283 0.1824962565756886 0.4190991341978781 
0.02253608148426931 0.216982922881384 0.2436387584341509 
0.7489656960829321 0.2832579494997589 0.4751518510863409 
0.608973632515886 0.6223137317587092 0.7392471317484756 
0.6233074291966355 0.04511229016580046 0.5636999574193265 
0.6364312129391212 0.5456192292991936 0.636194949673398 
0.5388570006290185 0.09224505788076433 0.4588159357855022 
0.7756289293637364 0.9963473535625509 0.1133480471962374 
0.1989962173630501 0.09692258569555237 0.8314249181042309 
0.4677680556346811 0.6943737202350173 0.9605958913636413 
0.487926242180203 0.001340697518856871 0.9029399785665143 
0.799845258332861 0.5532623224178039 0.069752895240787 
0.7120365236364135 0.5306580131730726 0.1581565471560896 
0.8783871629841685 0.4725254636851486 0.0187902778765232 
0.2358643930704033 0.5446840664163771 0.4405787920390354 
0.9404694445242782 0.704494049211734 0.507605639049967 
0.09419347644122621 0.1449589870660757 0.04641719043887351 
0.9671572714731296 0.8019915987728202 0.5690894324476414 
0.02404979172905451 0.3222270524957092 0.6117852739469217 
0.2925248368212372 0.5600246244296316 0.08783632582619957 
0.2162310722208437 0.4139981794105851 0.5061119177815915 
0.3193630746941254 0.08435673984496075 0.3545750445432146 
0.6885231152695962 0.5423441249680034 0.5272425459570984 
0.002121293683479869 0.5437130799779142 0.9591583186019406 
0.4674174208345742 0.3421273912106979 0.8366986644283408 
0.8518582257200693 0.8118686413802818 0.9446768618912078 
0.6292672622346938 0.7036969406978707 0.9581602984302862 
0.3712002866104244 0.7593519325557389 0.7815391184848085 
0.277176881312776 0.6152929232384576 0.1145995077143426 
0.9049376787594809 0.6952723179965875 0.3706018187242552 
0.0579160342188943 0.7255686622925248 0.1057223616606917 
0.03193478005382475 0.4592176766790367 0.9953472553774029 
0.6011999798467383 0.788756481470188 0.03176999509717804 
0.6726550484669138 0.6730938478498283 0.7649926257948425 
0.3354424092287931 0.583162965679931 0.6313985620479106 
0.9995644886514338 0.9725542047654492 0.9139851166801597 
0.5587004415883216 0.7299309704779038 0.06208589367471361 
0.4359460459389044 0.5497802824015821 0.6457160303156283 
0.3627430857798349 0.4030407197293636 0.2017836728124955 
0.1479098039456132 0.5919991391282533 0.5780126861864642 
0.7366132148371016 0.373107383552423 0.1645189043299673 
0.5636995883827566 0.6763024927692942 0.4271737123247358 
0.3769491348057291 0.8765868147012839 0.3685485600174644 
0.1871042267013787 0.4049198953877576 0.06695128392104466 
0.2193345421835154 0.2680055833104972 0.9098098504311359 
0.6748514160630985 0.7583407812014498 0.662445400533059 
0.5444291187243401 0.002246417336982481 0.2614691074651344 
0.2804672649221182 0.07199135116674409 0.8264675753533526 
0.09341248981961399 0.9414622138992593 0.8795041849932148 
0.873736208363559 0.6299005548330487 0.3394901648445566 
0.7075377075432159 0.5259243955249319 0.8035644368251951 
0.05540884749246349 0.2141117399027051 0.5946757662600485 
0.1177505163393214 0.9583438281163835 0.1074470248504323 
0.0478422243390967 0.4185974842782144 0.8621245676827968 
0.6326311900594126 0.7229671416697245 0.7335341064103255 
0.5584333587631428 0.3448330718815173 0.3660831885104612 
0.3070899796173489 0.09122103029339526 0.4504980817667683 
0.2910133102950578 0.1796195825191123 0.9722493970895887 
0.936808703263845 0.4745101870621973 0.8999072947074159 
0.2261221549817723 0.4414807171833325 0.120103006195229 
0.7128154715929108 0.1348507461907106 0.7987039537175075 
0.5894381259151557 0.8392854566502919 0.6047770310636716 
0.1240829883031161 0.6374040566676278 0.9535059088591924 
0.2776331246003355 0.2265062782790017 0.8103984667405493 
0.9565620350388055 0.3160702181905181 0.550883720372392 
0.3442618349360945 0.03584293926328284 0.5144578611876546 
0.5543058709919891 0.8206813063841866 0.2222772437509721 
0.06975130198069322 0.4279591793064218 0.7444148507228052 
0.8940476947957428 0.3425070360104986 0.4772951395822246 
0.9413780619197627 0.7506930549858636 0.5209977356619212 
0.01204313057845313 0.6100266570644329 0.06823858964804626 
0.752391826011058 0.4793535533922941 0.2295646203078494 
0.9641434166281747 0.1083162542859482 0.3040550084300083 
0.6259989758832385 0.6228648586557876 0.944976499096967 
0.1719309561085277 0.2295011427581771 0.03589000015710946 
0.8898231413262788 0.8549411672377302 0.5689448250602256 
0.09681615624725066 0.4328474845118599 0.1256810263145338 
0.5009308510921286 0.5830183436241847 0.7820444692475514 
0.01972090009612921 0.2944962748817651 0.3353985083124607 
0.8703273765880952 0.1321809214389972 0.09877967038248681 
0.3706777131321478 0.8566726810034957 0.7043029492700924 
0.05883907337727069 0.838349045096734 0.9935845551110876 
0.915901981566147 0.3670991319850557 0.8747852566303754 
0.8726032646966152 0.6664792494073141 0.09730455111837734 
0.737500116584124 0.07554374422154216 0.498424867401633 
0.1544282493859398 0.7778089534128975 0.6615996655721219 
0.1559422073625297 0.5790551041350444 0.9439659675378511 
0.7901586972688517 0.2513628239969896 0.6787826024560338 
0.1533424739477492 0.9859114668863307 0.5911328228697493 
0.302553024234924 0.1352382525171907 0.2997274262366223 
0.8905112133871246 0.9618566506719884 0.8079476122241711 
0.7041106956526122 0.6599124136101863 0.05514744084554378 
0.349565379857288 0.2836182686576535 0.002033976371384237 
0.5000019199214867 0.03994758681396601 0.3136394008464928 
0.6930190281974995 0.254927318424486 0.4825497600331205 
0.1085698848550348 0.5301117242639364 0.8539334997283604 
0.4425994991592134 0.2049747751071235 0.0765289102790277 
0.2142173707418994 0.7853229994488308 0.7538005270744671 
0.4650301945092947 0.6243751823788625 0.6741526989852299 
0.0213529150833595 0.6103745148934543 0.9763627820758323 
0.04978780073589282 0.03034110226186872 0.8805021416021035 
0.457969272063128 0.1034673086351402 0.4846284368612671 
0.4184919060587455 0.4825778601306594 0.9556063271800027 
0.1863809322536081 0.3183446755547334 0.9775376964930735 
0.7401185870449438 0.7009468017141582 0.003264953380792889 
0.7918573476877728 0.6276354505086152 0.04991205616392565 
0.6082056399396595 0.2555821173565546 0.8083426108079298 
0.01712131452880739 0.2993196659724602 0.9886052242998941 
0.7096261022567627 0.9665291174470777 0.9778993211323864 
0.8743481741406265 0.5175209790386628 0.7659602059209905 
0.7937461089837616 0.7688173331465491 0.3705569287433489 
0.1569994929446841 0.1452445277733521 0.8859792557144635 
0.9813515127257669 0.149576726067077 0.5970122266574706 
0.6446930637375018 0.3648908665101552 0.6606748780884432 
0.182904799150813 0.6102538466871466 0.3404087909309153 
0.3123941070808125 0.4041222094538984 0.07248080052785538 
0.02774338283215492 0.4667966284478099 0.1525297429633654 
0.8299740686407433 0.4387750514136743 0.9036539609526965 
0.4465365882746239 0.3254740052737882 0.1589254498673019 
0.5312996827851517 0.9626195638148954 0.9197927785945158 
0.1839568297453426 0.3926443972659091 0.06868141583694079 
0.8855224059030775 0.3408712603427138 0.4069304985893283 
0.3196137525049906 0.6995248295368977 0.04282043429891558 
0.3975495566159722 0.3111647917837069 0.9437471949757322 
0.9016081917092166 0.9270398081620038 0.3714305339979797 
0.6607151056357123 0.81378286550111 0.2186289479869283 
0.058091392946387 0.6857649694728828 0.05399829239863982 
0.6654950309705479 0.4875260370375933 0.4398769350071079 